 Gaussian 16, Revision B.01,
 Gaussian 16:  EM64L-G16RevB.01 20-Dec-2017

 ---------------------------------------
 #p b3lyp def2svp force units(au) nosymm
 ---------------------------------------

 --------------------------------------------------------------
 generate for AIMD to electronic calculate potential and force.
 --------------------------------------------------------------
 Symbolic Z-matrix:
 Charge =  0 Multiplicity = 1

                          Input orientation:
 ---------------------------------------------------------------------
 Center     Atomic      Atomic             Coordinates (Angstroms)
 Number     Number       Type             X           Y           Z
 ---------------------------------------------------------------------
      1          8           0        1.995311   -0.223588    0.372005
      2          1           0        2.027027    0.487182   -0.287640
      3          1           0        2.548650   -0.836730   -0.111014
 ---------------------------------------------------------------------

 SCF Done:  E(RB3LYP) =  -76.3569131125     A.U. after    9 cycles

 Alpha  occ. eigenvalues --  -19.12255  -0.98750  -0.50012  -0.38211  -0.29408
 Alpha virt. eigenvalues --    0.04347   0.12456   0.53897   0.64442   0.91878
 Alpha virt. eigenvalues --    0.92172   1.01070   1.11289   1.30237   1.37268
 Alpha virt. eigenvalues --    1.50265   1.83351   2.19974   2.26452   2.97149

 Mulliken charges:
               1
     1  O   -0.274319
     2  H    0.139350
     3  H    0.134968
 Sum of Mulliken charges =   0.00000

 Dipole moment (field-independent basis, Debye):
    X=              0.9533    Y=              0.1474    Z=             -1.8519  Tot=              2.0881
 Quadrupole moment (field-independent basis, Debye-Ang):
   XX=             -2.5108   YY=             -5.0467   ZZ=             -6.9505
   XY=             -0.6512   XZ=             -3.9475   YZ=              0.0912

 Normal termination of Gaussian 16 at Tue Sep  8 19:55:48 2020.
