 Gaussian 16, Revision B.01,
 Gaussian 16:  EM64L-G16RevB.01 20-Dec-2017

 --------------------------------
 #p b3lyp def2svp force units(au)
 --------------------------------

 --------------------------------------------------------------
 generate for AIMD to electronic calculate potential and force.
 --------------------------------------------------------------
 Symbolic Z-matrix:
 Charge =  0 Multiplicity = 1

                         Standard orientation:
 ---------------------------------------------------------------------
 Center     Atomic      Atomic             Coordinates (Angstroms)
 Number     Number       Type             X           Y           Z
 ---------------------------------------------------------------------
      1          8           0        0.000000    0.096087    0.000000
      2          1           0        0.781917   -0.443612    0.000000
      3          1           0       -0.781917   -0.325080    0.000000
 ---------------------------------------------------------------------

 SCF Done:  E(RB3LYP) =  -76.3479632508     A.U. after    9 cycles

 The electronic state is 1-A'.
 Alpha  occ. eigenvalues --  -19.10539  -0.98971  -0.55322  -0.34474  -0.29131
 Alpha virt. eigenvalues --    0.05659   0.13535   0.59172   0.65887   0.90984
 Alpha virt. eigenvalues --    0.92271   1.00415   1.08125   1.32024   1.54717
 Alpha virt. eigenvalues --    1.62397   1.74910   2.28379   2.42384   2.91431

 Mulliken charges:
               1
     1  O   -0.284322
     2  H    0.156616
     3  H    0.127706
 Sum of Mulliken charges =   0.00000

 Dipole moment (field-independent basis, Debye):
    X=             -0.0387    Y=             -1.7756    Z=              0.0000  Tot=              1.7761
 Quadrupole moment (field-independent basis, Debye-Ang):
   XX=             -3.9139   YY=             -6.1940   ZZ=             -6.9074
   XY=             -0.1974   XZ=              0.0000   YZ=              0.0000

 Normal termination of Gaussian 16 at Thu Aug 27 11:17:06 2020.
