 Gaussian 16, Revision B.01,
 Gaussian 16:  EM64L-G16RevB.01 20-Dec-2017

 --------------------------------
 #p b3lyp def2svp force units(au)
 --------------------------------

 --------------------------------------------------------------
 generate for AIMD to electronic calculate potential and force.
 --------------------------------------------------------------
 Symbolic Z-matrix:
 Charge =  0 Multiplicity = 1

                         Standard orientation:
 ---------------------------------------------------------------------
 Center     Atomic      Atomic             Coordinates (Angstroms)
 Number     Number       Type             X           Y           Z
 ---------------------------------------------------------------------
      1          8           0        0.000000    0.182135    0.000000
      2          1           0        0.553176   -0.703848    0.000000
      3          1           0       -0.553176   -0.753231    0.000000
 ---------------------------------------------------------------------

 SCF Done:  E(RB3LYP) =  -76.3048490027     A.U. after   10 cycles

 The electronic state is 1-A'.
 Alpha  occ. eigenvalues --  -19.14948  -0.97906  -0.44926  -0.40243  -0.29794
 Alpha virt. eigenvalues --   -0.00160   0.09642   0.48081   0.50936   0.90030
 Alpha virt. eigenvalues --    0.91220   1.02602   1.02946   1.27991   1.33708
 Alpha virt. eigenvalues --    1.53966   1.80832   2.05328   2.39069   2.78961

 Mulliken charges:
               1
     1  O   -0.292579
     2  H    0.143825
     3  H    0.148754
 Sum of Mulliken charges =   0.00000

 Dipole moment (field-independent basis, Debye):
    X=              0.0456    Y=             -2.4593    Z=              0.0000  Tot=              2.4597
 Quadrupole moment (field-independent basis, Debye-Ang):
   XX=             -6.0656   YY=             -4.8692   ZZ=             -7.1955
   XY=              0.0234   XZ=              0.0000   YZ=              0.0000

 Normal termination of Gaussian 16 at Thu Aug 27 14:33:03 2020.
