 Gaussian 16, Revision B.01,
 Gaussian 16:  EM64L-G16RevB.01 20-Dec-2017

 ---------------------------------------
 #p b3lyp def2svp force units(au) nosymm
 ---------------------------------------

 --------------------------------------------------------------
 generate for AIMD to electronic calculate potential and force.
 --------------------------------------------------------------
 Symbolic Z-matrix:
 Charge =  0 Multiplicity = 1

                          Input orientation:
 ---------------------------------------------------------------------
 Center     Atomic      Atomic             Coordinates (Angstroms)
 Number     Number       Type             X           Y           Z
 ---------------------------------------------------------------------
      1          8           0        1.377731   -0.239094    1.272586
      2          1           0        2.121468   -0.438203    0.566830
      3          1           0        1.126515   -0.912114    0.457196
 ---------------------------------------------------------------------

 SCF Done:  E(RB3LYP) =  -76.3048589822     A.U. after   10 cycles

 Alpha  occ. eigenvalues --  -19.14947  -0.97906  -0.44925  -0.40244  -0.29794
 Alpha virt. eigenvalues --   -0.00160   0.09642   0.48080   0.50940   0.90030
 Alpha virt. eigenvalues --    0.91220   1.02602   1.02947   1.27993   1.33704
 Alpha virt. eigenvalues --    1.53964   1.80832   2.05334   2.39064   2.78965

 Mulliken charges:
               1
     1  O   -0.292574
     2  H    0.143819
     3  H    0.148755
 Sum of Mulliken charges =   0.00000

 Dipole moment (field-independent basis, Debye):
    X=              0.7067    Y=             -1.1591    Z=             -2.0512  Tot=              2.4597
 Quadrupole moment (field-independent basis, Debye-Ang):
   XX=             -4.0815   YY=             -5.7094   ZZ=            -10.1627
   XY=             -1.7590   XZ=             -2.5796   YZ=              0.3380

 Normal termination of Gaussian 16 at Tue Sep  8 20:02:10 2020.
