 Gaussian 16, Revision B.01,
 Gaussian 16:  EM64L-G16RevB.01 20-Dec-2017

 --------------------------------
 #p b3lyp def2svp force units(au)
 --------------------------------

 --------------------------------------------------------------
 generate for AIMD to electronic calculate potential and force.
 --------------------------------------------------------------
 Symbolic Z-matrix:
 Charge =  0 Multiplicity = 1

                         Standard orientation:
 ---------------------------------------------------------------------
 Center     Atomic      Atomic             Coordinates (Angstroms)
 Number     Number       Type             X           Y           Z
 ---------------------------------------------------------------------
      1          8           0        0.000000    0.161674    0.000000
      2          1           0        0.616891   -0.693046    0.000000
      3          1           0       -0.616891   -0.600348    0.000000
 ---------------------------------------------------------------------

 SCF Done:  E(RB3LYP) =  -76.3328051084     A.U. after    9 cycles

 The electronic state is 1-A'.
 Alpha  occ. eigenvalues --  -19.13886  -0.98630  -0.44071  -0.42313  -0.29715
 Alpha virt. eigenvalues --    0.01911   0.10974   0.48602   0.60225   0.91007
 Alpha virt. eigenvalues --    0.92165   1.02287   1.06849   1.23611   1.36105
 Alpha virt. eigenvalues --    1.46662   1.83895   2.16079   2.28561   2.85257

 Mulliken charges:
               1
     1  O   -0.279125
     2  H    0.146654
     3  H    0.132471
 Sum of Mulliken charges =   0.00000

 Dipole moment (field-independent basis, Debye):
    X=             -0.0771    Y=             -2.3359    Z=              0.0000  Tot=              2.3372
 Quadrupole moment (field-independent basis, Debye-Ang):
   XX=             -5.5299   YY=             -5.2202   ZZ=             -7.1012
   XY=             -0.0689   XZ=              0.0000   YZ=              0.0000

 Normal termination of Gaussian 16 at Thu Aug 27 14:31:32 2020.
