 Gaussian 16, Revision B.01,
 Gaussian 16:  EM64L-G16RevB.01 20-Dec-2017

 ---------------------------------------
 #p b3lyp def2svp force units(au) nosymm
 ---------------------------------------

 --------------------------------------------------------------
 generate for AIMD to electronic calculate potential and force.
 --------------------------------------------------------------
 Symbolic Z-matrix:
 Charge =  0 Multiplicity = 1

                          Input orientation:
 ---------------------------------------------------------------------
 Center     Atomic      Atomic             Coordinates (Angstroms)
 Number     Number       Type             X           Y           Z
 ---------------------------------------------------------------------
      1          8           0        1.947640    0.104188    0.906880
      2          1           0        2.908612   -0.025325    0.493522
      3          1           0        2.172306   -0.836312    1.068788
 ---------------------------------------------------------------------

 SCF Done:  E(RB3LYP) =  -76.3328032606     A.U. after    9 cycles

 Alpha  occ. eigenvalues --  -19.13886  -0.98630  -0.44071  -0.42313  -0.29715
 Alpha virt. eigenvalues --    0.01911   0.10974   0.48602   0.60225   0.91007
 Alpha virt. eigenvalues --    0.92165   1.02287   1.06848   1.23611   1.36104
 Alpha virt. eigenvalues --    1.46663   1.83895   2.16079   2.28562   2.85257

 Mulliken charges:
               1
     1  O   -0.279124
     2  H    0.146653
     3  H    0.132470
 Sum of Mulliken charges =   0.00000

 Dipole moment (field-independent basis, Debye):
    X=              1.6713    Y=             -1.6005    Z=             -0.3283  Tot=              2.3372
 Quadrupole moment (field-independent basis, Debye-Ang):
   XX=              1.3327   YY=             -5.5473   ZZ=             -7.3001
   XY=             -3.6118   XZ=              0.1651   YZ=             -1.7085

 Normal termination of Gaussian 16 at Tue Sep  8 19:58:38 2020.
