 Gaussian 16, Revision B.01,
 Gaussian 16:  EM64L-G16RevB.01 20-Dec-2017

 --------------------------------
 #p b3lyp def2svp force units(au)
 --------------------------------

 --------------------------------------------------------------
 generate for AIMD to electronic calculate potential and force.
 --------------------------------------------------------------
 Symbolic Z-matrix:
 Charge =  0 Multiplicity = 1

                         Standard orientation:
 ---------------------------------------------------------------------
 Center     Atomic      Atomic             Coordinates (Angstroms)
 Number     Number       Type             X           Y           Z
 ---------------------------------------------------------------------
      1          8           0        0.000000    0.165110    0.000000
      2          1           0        0.606809   -0.701937    0.000000
      3          1           0       -0.606809   -0.618941    0.000000
 ---------------------------------------------------------------------

 SCF Done:  E(RB3LYP) =  -76.3290725635     A.U. after   10 cycles

 The electronic state is 1-A'.
 Alpha  occ. eigenvalues --  -19.14069  -0.98512  -0.43477  -0.42680  -0.29730
 Alpha virt. eigenvalues --    0.01612   0.10741   0.48425   0.58780   0.90879
 Alpha virt. eigenvalues --    0.92034   1.02391   1.05731   1.25073   1.34681
 Alpha virt. eigenvalues --    1.47761   1.83393   2.15428   2.29110   2.84361

 Mulliken charges:
               1
     1  O   -0.281734
     2  H    0.146833
     3  H    0.134901
 Sum of Mulliken charges =   0.00000

 Dipole moment (field-independent basis, Debye):
    X=             -0.0707    Y=             -2.3590    Z=              0.0000  Tot=              2.3600
 Quadrupole moment (field-independent basis, Debye-Ang):
   XX=             -5.6204   YY=             -5.1629   ZZ=             -7.1168
   XY=             -0.0577   XZ=              0.0000   YZ=              0.0000

 Normal termination of Gaussian 16 at Sun Aug 23 14:49:09 2020.
