 Gaussian 16, Revision B.01,
 Gaussian 16:  EM64L-G16RevB.01 20-Dec-2017

 ----------------------
 #p b3lyp def2svp force
 ----------------------

 --------------------------------------------------------------
 generate for AIMD to electronic calculate potential and force.
 --------------------------------------------------------------
 Symbolic Z-matrix:
 Charge =  0 Multiplicity = 1

                         Standard orientation:
 ---------------------------------------------------------------------
 Center     Atomic      Atomic             Coordinates (Angstroms)
 Number     Number       Type             X           Y           Z
 ---------------------------------------------------------------------
      1          8           0        0.000000    0.000000    0.120207
      2          1           0        0.000000    0.757039   -0.480828
      3          1           0        0.000000   -0.757039   -0.480828
 ---------------------------------------------------------------------

 SCF Done:  E(RB3LYP) =  -76.3583157198     A.U. after    9 cycles

 The electronic state is 1-A1.
 Alpha  occ. eigenvalues --  -19.11964  -0.97982  -0.51166  -0.36789  -0.29167
 Alpha virt. eigenvalues --    0.04482   0.12391   0.55518   0.62053   0.91734
 Alpha virt. eigenvalues --    0.92035   1.00685   1.09512   1.34765   1.39553
 Alpha virt. eigenvalues --    1.54226   1.78666   2.19898   2.24612   2.96049

 Mulliken charges:
               1
     1  O   -0.294466
     2  H    0.147233
     3  H    0.147233
 Sum of Mulliken charges =   0.00000

 Dipole moment (field-independent basis, Debye):
    X=              0.0000    Y=              0.0000    Z=             -2.0043  Tot=              2.0043
 Quadrupole moment (field-independent basis, Debye-Ang):
   XX=             -7.0030   YY=             -4.3520   ZZ=             -5.9374
   XY=              0.0000   XZ=              0.0000   YZ=              0.0000

 Optimization completed.
    -- Stationary point found.
 Normal termination of Gaussian 16 at Sun Aug 23 11:49:41 2020.
