 Gaussian 16, Revision B.01,
 Gaussian 16:  EM64L-G16RevB.01 20-Dec-2017

 --------------------------------
 #p b3lyp def2svp force units(au)
 --------------------------------

 --------------------------------------------------------------
 generate for AIMD to electronic calculate potential and force.
 --------------------------------------------------------------
 Symbolic Z-matrix:
 Charge =  0 Multiplicity = 1

                         Standard orientation:
 ---------------------------------------------------------------------
 Center     Atomic      Atomic             Coordinates (Angstroms)
 Number     Number       Type             X           Y           Z
 ---------------------------------------------------------------------
      1          8           0        0.000000    0.169286    0.000000
      2          1           0        0.649486   -0.674792    0.000000
      3          1           0       -0.649486   -0.679498    0.000000
 ---------------------------------------------------------------------

 SCF Done:  E(RB3LYP) =  -76.3275605138     A.U. after   10 cycles

 The electronic state is 1-A'.
 Alpha  occ. eigenvalues --  -19.14571  -0.96442  -0.42877  -0.42001  -0.29444
 Alpha virt. eigenvalues --    0.01009   0.09122   0.47190   0.55962   0.90584
 Alpha virt. eigenvalues --    0.91786   1.02306   1.07156   1.22761   1.37174
 Alpha virt. eigenvalues --    1.45112   1.78263   2.07279   2.18101   2.82491

 Mulliken charges:
               1
     1  O   -0.309226
     2  H    0.154379
     3  H    0.154847
 Sum of Mulliken charges =   0.00000

 Dipole moment (field-independent basis, Debye):
    X=              0.0040    Y=             -2.3523    Z=              0.0000  Tot=              2.3523
 Quadrupole moment (field-independent basis, Debye-Ang):
   XX=             -5.5305   YY=             -5.1983   ZZ=             -7.2040
   XY=              0.0035   XZ=              0.0000   YZ=              0.0000

 Normal termination of Gaussian 16 at Sun Aug 23 15:02:47 2020.
