 Gaussian 16, Revision B.01,
 Gaussian 16:  EM64L-G16RevB.01 20-Dec-2017

 ---------------------------------------
 #p b3lyp def2svp force units(au) nosymm
 ---------------------------------------

 --------------------------------------------------------------
 generate for AIMD to electronic calculate potential and force.
 --------------------------------------------------------------
 Symbolic Z-matrix:
 Charge =  0 Multiplicity = 1

                          Input orientation:
 ---------------------------------------------------------------------
 Center     Atomic      Atomic             Coordinates (Angstroms)
 Number     Number       Type             X           Y           Z
 ---------------------------------------------------------------------
      1          8           0        2.270542    0.508764    0.593298
      2          1           0        2.989794    0.817485    0.975074
      3          1           0        2.256234    0.067712    1.463410
 ---------------------------------------------------------------------

 SCF Done:  E(RB3LYP) =  -76.3250870228     A.U. after    9 cycles

 Alpha  occ. eigenvalues --  -19.12346  -1.03201  -0.47216  -0.42402  -0.30294
 Alpha virt. eigenvalues --    0.03832   0.13820   0.52742   0.70506   0.91432
 Alpha virt. eigenvalues --    0.92672   1.02280   1.09412   1.24024   1.37289
 Alpha virt. eigenvalues --    1.48327   1.96262   2.29781   2.50710   2.92896

 Mulliken charges:
               1
     1  O   -0.212318
     2  H    0.088672
     3  H    0.123646
 Sum of Mulliken charges =   0.00000

 Dipole moment (field-independent basis, Debye):
    X=              1.1767    Y=             -0.1423    Z=              1.9311  Tot=              2.2659
 Quadrupole moment (field-independent basis, Debye-Ang):
   XX=             -0.3631   YY=             -6.4027   ZZ=             -2.7165
   XY=              0.8207   XZ=              5.6559   YZ=              0.3551

 Normal termination of Gaussian 16 at Tue Sep  8 19:57:09 2020.
