 Gaussian 16, Revision B.01,
 Gaussian 16:  EM64L-G16RevB.01 20-Dec-2017

 --------------------------------
 #p b3lyp def2svp force units(au)
 --------------------------------

 --------------------------------------------------------------
 generate for AIMD to electronic calculate potential and force.
 --------------------------------------------------------------
 Symbolic Z-matrix:
 Charge =  0 Multiplicity = 1

                         Standard orientation:
 ---------------------------------------------------------------------
 Center     Atomic      Atomic             Coordinates (Angstroms)
 Number     Number       Type             X           Y           Z
 ---------------------------------------------------------------------
      1          8           0        0.000000    0.144279    0.000000
      2          1           0        0.574627   -0.510080    0.000000
      3          1           0       -0.574627   -0.644155    0.000000
 ---------------------------------------------------------------------

 SCF Done:  E(RB3LYP) =  -76.3250881576     A.U. after    9 cycles

 The electronic state is 1-A'.
 Alpha  occ. eigenvalues --  -19.12345  -1.03201  -0.47217  -0.42402  -0.30294
 Alpha virt. eigenvalues --    0.03832   0.13820   0.52742   0.70507   0.91432
 Alpha virt. eigenvalues --    0.92672   1.02280   1.09412   1.24024   1.37289
 Alpha virt. eigenvalues --    1.48327   1.96262   2.29780   2.50710   2.92896

 Mulliken charges:
               1
     1  O   -0.212318
     2  H    0.088672
     3  H    0.123647
 Sum of Mulliken charges =   0.00000

 Dipole moment (field-independent basis, Debye):
    X=              0.1017    Y=             -2.2636    Z=              0.0000  Tot=              2.2658
 Quadrupole moment (field-independent basis, Debye-Ang):
   XX=             -5.4062   YY=             -5.3150   ZZ=             -6.9043
   XY=              0.1056   XZ=              0.0000   YZ=              0.0000

 Normal termination of Gaussian 16 at Thu Aug 27 14:30:52 2020.
