 Gaussian 16, Revision B.01,
 Gaussian 16:  EM64L-G16RevB.01 20-Dec-2017

 --------------------------------
 #p b3lyp def2svp force units(au)
 --------------------------------

 --------------------------------------------------------------
 generate for AIMD to electronic calculate potential and force.
 --------------------------------------------------------------
 Symbolic Z-matrix:
 Charge =  0 Multiplicity = 1

                         Standard orientation:
 ---------------------------------------------------------------------
 Center     Atomic      Atomic             Coordinates (Angstroms)
 Number     Number       Type             X           Y           Z
 ---------------------------------------------------------------------
      1          8           0        0.000000    0.167436    0.000000
      2          1           0        0.497550   -0.601565    0.000000
      3          1           0       -0.497550   -0.737922    0.000000
 ---------------------------------------------------------------------

 SCF Done:  E(RB3LYP) =  -76.2993062765     A.U. after   10 cycles

 The electronic state is 1-A'.
 Alpha  occ. eigenvalues --  -19.13721  -1.02826  -0.45690  -0.41928  -0.30388
 Alpha virt. eigenvalues --    0.01396   0.12889   0.49811   0.59465   0.90862
 Alpha virt. eigenvalues --    0.91099   1.02023   1.04140   1.26383   1.39818
 Alpha virt. eigenvalues --    1.57462   1.90745   2.28284   2.52778   2.84818

 Mulliken charges:
               1
     1  O   -0.236149
     2  H    0.102485
     3  H    0.133664
 Sum of Mulliken charges =   0.00000

 Dipole moment (field-independent basis, Debye):
    X=              0.1201    Y=             -2.4332    Z=              0.0000  Tot=              2.4362
 Quadrupole moment (field-independent basis, Debye-Ang):
   XX=             -6.0229   YY=             -4.9311   ZZ=             -7.0139
   XY=              0.0639   XZ=              0.0000   YZ=              0.0000

 Normal termination of Gaussian 16 at Thu Aug 27 14:32:18 2020.
