 Gaussian 16, Revision B.01,
 Gaussian 16:  EM64L-G16RevB.01 20-Dec-2017

 ---------------------------------------
 #p b3lyp def2svp force units(au) nosymm
 ---------------------------------------

 --------------------------------------------------------------
 generate for AIMD to electronic calculate potential and force.
 --------------------------------------------------------------
 Symbolic Z-matrix:
 Charge =  0 Multiplicity = 1

                          Input orientation:
 ---------------------------------------------------------------------
 Center     Atomic      Atomic             Coordinates (Angstroms)
 Number     Number       Type             X           Y           Z
 ---------------------------------------------------------------------
      1          8           0        1.943068   -0.571859    0.885139
      2          1           0        2.529699    0.059796    1.194687
      3          1           0        1.666255    0.421967    0.831261
 ---------------------------------------------------------------------

 SCF Done:  E(RB3LYP) =  -76.2993046632     A.U. after   10 cycles

 Alpha  occ. eigenvalues --  -19.13721  -1.02826  -0.45690  -0.41927  -0.30388
 Alpha virt. eigenvalues --    0.01396   0.12889   0.49811   0.59464   0.90862
 Alpha virt. eigenvalues --    0.91099   1.02023   1.04140   1.26382   1.39820
 Alpha virt. eigenvalues --    1.57463   1.90746   2.28282   2.52780   2.84818

 Mulliken charges:
               1
     1  O   -0.236151
     2  H    0.102489
     3  H    0.133662
 Sum of Mulliken charges =   0.00000

 Dipole moment (field-independent basis, Debye):
    X=              0.5575    Y=              2.3344    Z=              0.4179  Tot=              2.4362
 Quadrupole moment (field-independent basis, Debye-Ang):
   XX=             -3.9723   YY=             -6.8804   ZZ=             -6.0640
   XY=              4.4972   XZ=              1.7200   YZ=              2.1536

 Normal termination of Gaussian 16 at Tue Sep  8 20:00:23 2020.
